[Molden Format]
[Atoms] AU
H    1    1    0.00000000    0.00000000   -0.70000000
H    2    1    0.00000000    0.00000000    0.70000000
[GTO]
1 0
s   3 1.00
  3.42525091D+00   0.15432897D+00
  6.23913730D-01   0.53532814D+00
  1.68855400D-01   0.44463454D+00
****
2 0
s   3 1.00
  3.42525091D+00   0.15432897D+00
  6.23913730D-01   0.53532814D+00
  1.68855400D-01   0.44463454D+00
****
[5D]
[MO]
Sym= A1
Ene= -0.5782029
Spin= Alpha
Occup= 2.000000
  1  5.48934040D-01
  2  5.48934040D-01
Sym= B1
Ene=  0.6702678
Spin= Alpha
Occup= 0.000000
  1  1.21146408D+00
  2 -1.21146408D+00
